# vtk DataFile Version 5.1
vtk output
ASCII
DATASET POLYDATA
POINTS 642 double
6.1232339957e-17 -1.4997597827e-32 1 6.1232339957e-17 -1.4997597827e-32 -1 0.30901699437 -7.5687334609e-17 -0.9510565163 
0.58778525229 -1.4396586556e-16 -0.80901699437 0.80901699437 -1.9815201452e-16 -0.58778525229 0.9510565163 -2.329416637e-16 -0.30901699437 
1 -2.4492935983e-16 -2.4492935983e-16 0.9510565163 -2.329416637e-16 0.30901699437 0.80901699437 -1.9815201452e-16 0.58778525229 
0.58778525229 -1.4396586556e-16 0.80901699437 0.30901699437 -7.5687334609e-17 0.9510565163 0.37922100298 0.29194148611 -0.87804419 
0.43454743449 0.27466714573 0.85774500071 0.95106927686 -0.26762460511 -0.15441600099 0.69925366235 -0.26130317458 0.6654058661 
0.45572305921 -0.28040558221 -0.84480128005 0.86110232783 0.27320855723 0.42878883527 0.85701443211 0.27076772319 -0.43841886734 
0.15063255405 -0.2698172279 0.9510565163 0.68088129051 0.2698172279 0.68088129051 0.63526452303 0.30072312637 -0.71133999399 
0.95031338187 -0.26970449583 0.1554476155 0.85287451954 -0.52211541647 -0.00073878571903 0.81688561697 -0.49938515138 -0.28863880432 
0.81119204022 -0.50428545181 0.29608049071 0.66921919289 -0.72919398605 0.14290487251 0.6044317607 -0.66744230748 0.43495173623 
0.15467388687 -0.2809582115 -0.94717393973 0.45146317401 -0.27648259655 0.84837396018 0.26753877504 -0.52681102749 0.8067794898 
0.95513829282 0.26405253251 0.1341160008 0.82221023124 0.51556859996 0.24116250619 0.43432794481 0.54956254445 -0.71368077325 
0.4227433704 -0.86384910717 0.27395759312 0.25333213813 -0.51949864262 -0.8160539125 0.47754873193 0.5233548315 0.70572440015 
0.18114393189 0.47354156204 0.86194272719 0.45490148896 -0.88962835188 -0.040324073142 0.53543963226 -0.50675625078 -0.67564968919 
0.3331741063 -0.73099547353 -0.59551711358 0.8681650643 0.49395411985 -0.047945266871 0.69852412221 0.71419048189 0.044676685971 
0.22968431153 0.7082599887 0.66754243719 0.70935638719 0.66001001181 -0.24738694441 0.49328201367 0.85690681658 -0.1496113722 
0.44590165313 0.86716844644 0.22178954267 0.19383319235 -0.97830613072 0.073115033591 0.13259576995 -0.91586670748 0.37895453015 
-0.042977359135 -0.50932414394 0.85950093834 -0.15879096853 -0.22696916265 0.96086962046 -0.062782272955 0.65214481664 0.75549025429 
-0.0012877424205 0.86047164821 0.50949669709 -0.30392799407 0.74428689715 0.59469722478 -0.10058574302 -0.98053201204 0.16864009507 
-0.25031216995 0.90873449985 0.33398417081 -0.5259170757 0.76483134018 0.37208097312 -0.45553614569 0.88524095561 0.093996119523 
-0.35014479199 -0.41430010349 0.84009169076 0.044625753819 -0.728759032 -0.68331458009 -0.5578090221 0.56213815669 0.61061427076 
-0.75327824715 0.54877894924 0.36251006502 -0.75167705913 0.31883764997 0.57734231765 -0.90785942426 0.2839340397 0.30850077292 
-0.87410274282 0.479064671 0.080258557133 -0.97827397292 0.20666189884 0.016458841652 -0.8971795562 0.39015976412 -0.20698841128 
-0.95483156454 0.10046497482 -0.27964883727 -0.82519581896 0.28761711298 -0.48613604752 -0.99449225485 -0.097679983645 -0.037997050472 
-0.92349586988 -0.2060689206 -0.3235598527 0.17766292755 0.50574352235 -0.84419155041 -0.91426849648 -0.39731133143 -0.079100077548 
-0.7955325746 -0.49191937253 -0.35375592388 -0.76113500284 -0.28264131322 -0.5837699851 -0.93822492767 -0.27627899342 0.20833603359 
-0.80096613476 -0.5731347805 0.17311780481 -0.71237455243 0.58476343666 -0.38803894159 -0.61753159016 0.42825701514 -0.65973529854 
-0.46438111089 0.67862887948 -0.56904571678 0.17824586289 0.74382482087 -0.64416849366 -0.17016027381 0.98447455741 0.043073507183 
-0.53342293093 0.30954674847 0.78717265404 -0.59537165254 -0.54796155335 -0.5875974229 -0.59769342209 -0.73019276486 -0.33103036014 
-0.54124306352 -0.32502581164 -0.77550897349 -0.052037091931 -0.98448548392 -0.1675722919 -0.70689706903 0.044410946867 0.70592081822 
-0.17093212096 -0.87357962894 0.45567624682 -0.7987078538 -0.40087927995 0.44873329181 -0.3856190659 -0.89270211435 0.23319706486 
-0.44833501388 -0.73755332462 0.50498594899 -0.33769617736 0.52155794733 -0.78354234051 -0.50372168699 0.21536627636 -0.83658940291 
-0.11434146019 0.37655494482 0.91931083101 -0.36550043084 0.9134176495 -0.17910229658 -0.074387054665 0.96775281899 -0.24066791942 
-0.36485844081 -0.75510831512 -0.54469234492 0.48690063211 0.71902764341 0.49591029678 -0.16492241651 0.33962053469 -0.92599054474 
-0.26499707146 0.012902967204 -0.96416288331 -0.45746083113 0.040166921893 0.88832212984 0.052071588853 -0.75646563916 0.65195727345 
0.47874262364 0.74790114535 -0.45983625031 -0.66638668334 -0.041815472463 -0.74443284084 -0.87557660856 -0.12650530193 0.46622098958 
-0.61817910881 0.77282757854 -0.1434995585 -0.16967803693 0.74421675786 -0.6460269198 0.12848184069 -0.89293411181 -0.43146389025 
0.16876445192 0.98552633722 0.01601244579 -0.35185179279 -0.89824161739 -0.26336725823 -0.57592657972 -0.81748310254 -0.0054728262743 
0.18692463331 0.93013897807 0.3160706613 0.61457586253 -0.65675803994 -0.43699586517 0.22495973148 0.91202285711 -0.34293939308 
-0.56734362734 -0.21467066544 0.79500799613 -0.57929968997 -0.46988885283 0.66604529514 -0.2366091775 -0.67374280988 0.70006194245 
0.85828014885 -0.25290701629 0.44653468757 0.69604486968 -0.23710085643 -0.67772023968 0.73679083841 -0.43918972218 -0.51405412981 
0.69647740115 0.52767758781 -0.48628756205 0.34940262788 -0.7364389 0.57928883141 0.69448163459 0.52714128286 0.48971147334 
0.6803704238 -0.71700122021 -0.15167510224 0.41467548807 -0.84822619713 -0.32947922255 0.64683586828 0.69748084566 0.30842151261 
-0.31759847271 0.52458291639 0.78990124317 0.23757043863 -0.95247863783 -0.19064294158 -0.77000435913 -0.62617955546 -0.12244366563 
-0.050827177098 -0.47912447169 -0.87627412303 -0.34710291586 -0.55989037035 -0.75235785301 -0.96866874941 0.020536290742 0.24750578717 
-0.84624899958 0.006248734251 -0.53275095873 -0.051869565141 0.59196743439 -0.80429105729 -0.69863535492 0.70698977006 0.10988223642 
0.8661092531 -0.2422987089 -0.4372025816 0.54450571643 -0.50000468623 0.67343064863 -0.59594800546 -0.75200237106 0.28167074521 
0.95289146847 0.25645903131 -0.16194633242 -0.014629045094 0.87761812708 -0.4791371558 -0.30341525717 -0.28621797343 -0.90885557346 
-0.30178584468 -0.95335217976 -0.0067026327722 0.095334239396 0.20036543446 0.97507183093 -0.19732010261 0.087994981124 0.97638192343 
-0.28787036178 0.85292988401 -0.43547820585 0.11984086359 0.27500216087 -0.95394548006 -0.73145576199 -0.24782458623 0.63526013782 
-0.13753760424 -0.868929175 -0.4754424216 -0.34590230836 0.22850393781 0.91002062805 0.72518534052 -0.45306397399 0.51849711414 
-0.46390308431 -0.10538852792 -0.87959489912 -0.061765093083 -0.26424493685 -0.96247581093 -0.71041894935 0.18599985771 -0.67875545621 
-0.86063261246 0.12606566507 0.49337506469 -0.78975434464 0.60043109133 -0.12558096862 -0.50712607161 0.78301670944 -0.36014994131 
-0.64384130332 -0.60229894131 0.47191562957 -0.03553269701 0.96429331001 0.26244206924 0.84325351386 0.45470323996 -0.28665044033 
0.28604154466 0.82846280004 0.48148688838 -0.18245855773 -0.71350913805 -0.67647142188 -0.39233168512 -0.19179485429 0.89960579296 
-0.79691223112 -0.60382899019 0.017928929415 -0.68525820934 -0.72533862635 -0.065612983868 -0.70688730736 -0.70240902755 0.083257988891 
-0.5926503127 -0.79315218136 0.14026840006 -0.69293335555 -0.68331829531 0.23004232667 -0.34625633232 -0.71344531351 0.60918169454 
-0.41655877543 -0.58127637318 0.69899682731 -0.52168000715 -0.61039239781 0.59604621535 0.35770422042 0.90108258723 -0.24514865224 
0.20033305857 0.96550288226 -0.16634557398 0.34225235908 0.93728973086 -0.065964256444 0.39086203703 -0.81092304622 0.43546605048 
0.24386378245 -0.83791330259 0.48829473984 0.2827225043 -0.90006970976 0.33157578793 0.31687594262 0.94116942933 0.11742973336 
0.47602967183 0.87884473724 0.032057438435 -0.2967162039 -0.55336230666 0.77829920462 -0.46395767146 -0.45495027828 0.76010757356 
-0.054051469736 0.15918338073 -0.98576827395 0.076047260977 0.1546823594 -0.98503308665 -0.12826930959 0.0016732264269 -0.99173796163 
0.73252446631 0.15243222483 -0.66345483877 0.76506711121 0.28893712649 -0.57548905488 0.84310504598 0.14463315731 -0.5179335201 
0.36829516435 0.85697469554 0.36049000418 0.38588854213 0.7826123315 0.48847514945 0.47226825824 0.80307485995 0.36336408956 
0.14488891211 0.38247470219 -0.91253509814 -0.0011691120418 0.30484314319 -0.95240185385 0.017706608766 0.41795395625 -0.90829563825 
0.48222402702 -0.71048606651 0.51251296283 0.522771664 -0.77196534256 0.3616342036 0.0055070750817 -0.63923086612 0.76899517029 
0.16129618404 -0.64949119869 0.74306441433 0.11345064132 -0.52550790665 0.84319060243 0.43959216586 -0.87852745107 -0.18694449829 
0.55473965457 -0.79614101462 -0.24170933058 0.57325322991 -0.81377320345 -0.095676056277 0.26251228338 0.2964157383 -0.91827284135 
0.28442331462 0.41081982785 -0.86621616652 0.60715289126 0.71354446802 -0.34959928319 0.49341616286 0.81081379386 -0.3148356427 
0.61197517719 0.76284180528 -0.20870736122 0.5213116681 -0.76140288987 -0.3853566971 0.65290378393 -0.69611682771 -0.29855989533 
0.57163470507 0.71545934961 0.4016860503 0.55805745494 0.7851443735 0.26855202428 0.61207406251 0.15167640438 -0.77611829663 
0.70710678119 0 -0.70710678119 0.06067568136 0.66913121824 -0.74066313157 -0.10326763096 0.67189511071 -0.7334117238 
-0.0045975089347 0.758306864 -0.6518815559 0.58763996108 0.403023728 0.70160612228 0.4607176767 0.40076206692 0.79191476062 
0.56544089708 0.27474638674 0.77768310698 0.23854028787 0.88408283154 0.40186574629 0.30091547338 0.91547447343 0.26712612447 
0.51183189543 0.29978645521 -0.80508148165 0.48694479612 0.14671294625 -0.86102269246 0.21154747999 0.83806791017 -0.5028815384 
0.35303318384 0.84037426326 -0.41126471859 0.33575697713 0.75380263941 -0.5648440786 0.67275928813 0.4221542472 -0.60760244552 
[...]
CELL_DATA 1280
FIELD FieldData 1
CellCenters 3 1280 float
-0.7519 -0.653119 0.0505935 -0.696073 -0.713874 0.0088225 -0.727631 -0.675759 -0.0940283 
-0.630592 -0.771411 -0.0355429 -0.649769 -0.747781 0.111763 -0.69991 -0.692864 0.15665 
-0.644441 -0.71766 0.255857 -0.74695 -0.628227 0.20158 -0.433968 -0.661919 0.602614 
-0.469119 -0.595834 0.647521 -0.326584 -0.62751 0.699529 -0.497929 -0.525583 0.682521 
0.349978 0.919186 -0.155556 0.271293 0.951396 -0.116155 0.212646 0.938763 -0.254642 
0.184549 0.975515 -0.0751666 0.336792 -0.855496 0.383521 0.263293 -0.868991 0.409935 
0.296633 -0.787176 0.533792 0.18823 -0.87689 0.433625 0.409141 0.908067 -0.0169534 
0.396453 0.910007 0.0747436 0.24282 0.963348 0.0667211 0.381389 0.904169 0.16961 
-0.440258 -0.518113 0.729552 -0.380337 -0.504156 0.769203 -0.266663 -0.613553 0.739181 
-0.323431 -0.483831 0.809195 -0.0911604 0.0804283 -0.988753 -0.026111 0.0781778 -0.988385 
0.0979441 0.214842 -0.969489 0.0380236 0.0773412 -0.992517 0.787815 0.148533 -0.590694 
0.804086 0.216785 -0.546711 0.700166 0.29483 -0.643414 0.811041 0.279852 -0.506954 
0.420282 0.830025 0.361927 0.429078 0.792844 0.42592 0.335965 0.805538 0.484981 
0.436395 0.75082 0.492193 0.0812978 0.400214 -0.910415 0.00826875 0.361399 -0.930349 
0.0593359 0.289923 -0.953174 -0.0830458 0.322232 -0.939196 0.502498 -0.741226 0.437074 
0.456817 -0.791444 0.39855 0.370132 -0.773681 0.507377 0.406803 -0.837386 0.354712 
0.0594789 -0.582369 0.806093 0.137373 -0.5875 0.793128 0.106684 -0.702978 0.697511 
0.214417 -0.588151 0.774922 0.506423 -0.84615 -0.14131 0.563996 -0.804957 -0.168693 
0.484708 -0.822184 -0.285594 0.617555 -0.756571 -0.196692 0.273468 0.353618 -0.892245 
0.214656 0.396647 -0.889376 0.132365 0.328738 -0.93324 0.161276 0.444109 -0.878363 
0.609564 0.738193 -0.279153 0.552696 0.786828 -0.261772 0.486079 0.779357 -0.387336 
0.493349 0.83386 -0.232224 0.603822 -0.746129 -0.270135 0.587108 -0.72876 -0.341958 
0.467994 -0.804815 -0.357418 0.567944 -0.70908 -0.411176 0.521951 0.759267 0.382525 
0.515163 0.79411 0.315958 0.602447 0.741313 0.288487 0.50198 0.826156 0.245171 
0.65959 0.0758382 -0.741613 0.719816 0.0762161 -0.685281 0.683895 0.226578 -0.687397 
0.770771 0.0762161 -0.62562 0.0280391 0.713719 -0.696272 -0.0539326 0.715101 -0.692647 
-0.0775686 0.631931 -0.768851 -0.136473 0.708056 -0.689719 0.57654 0.338885 0.739645 
0.513079 0.337754 0.784799 0.469133 0.462058 0.74882 0.447633 0.337715 0.82483 
0.269728 0.899779 0.334496 0.334605 0.886225 0.313808 0.327168 0.842719 0.420988 
0.407098 0.862072 0.29114 0.499388 0.22325 -0.833052 0.549509 0.149195 -0.81857 
0.623669 0.2262 -0.743729 0.59993 0.0758382 -0.792568 0.273652 0.795935 -0.533863 
0.344395 0.797088 -0.488054 0.288996 0.876199 -0.377102 0.415888 0.794138 -0.43555 
0.718913 0.355546 -0.591546 0.776021 0.34638 -0.520981 0.741726 0.46575 -0.47638 
0.821995 0.337295 -0.452446 0.168716 -0.842674 0.505442 0.147686 -0.801229 0.57323 
0.275603 -0.745731 0.60158 0.126937 -0.755745 0.637914 0.252584 0.952138 0.154853 
0.308896 0.928322 0.192278 0.24392 0.922807 0.291598 0.373409 0.891321 0.244458 
0.584793 0.139567 0.79532 0.543873 0.20752 0.809411 0.623161 0.272282 0.729282 
0.499994 0.274707 0.817714 0.409572 0.0770349 -0.904558 0.470468 0.0733565 -0.876015 
0.433083 0.219327 -0.869533 0.537365 0.0733565 -0.83502 0.654512 0.660506 -0.360784 
0.601042 0.678661 -0.415427 0.645705 0.585728 -0.483771 0.536837 0.695839 -0.470546 
-0.0343985 -0.944046 -0.320304 0.0128062 -0.92014 -0.38205 -0.0731975 -0.878915 -0.466728 
0.0598123 -0.890917 -0.444739 -0.259982 -0.799762 0.535924 -0.329875 -0.764527 0.54775 
-0.291433 -0.693594 0.654622 -0.397296 -0.725499 0.557084 -0.115649 0.245679 -0.953761 
-0.14209 0.172849 -0.970444 0.0328947 0.217093 -0.969857 -0.159524 0.0860432 -0.974966 
0.122554 0.978601 -0.143443 0.0605255 0.971974 -0.208091 0.150618 0.932136 -0.31929 
0.000944713 0.960001 -0.268155 0.423225 0.825594 -0.36305 0.42556 0.855948 -0.279992 
0.291332 0.906553 -0.294044 0.425493 0.878995 -0.19738 -0.227765 -0.923302 -0.298538 
-0.156536 -0.944097 -0.279806 -0.120402 -0.902821 -0.404982 -0.0776519 -0.960599 -0.251047 
0.144255 0.832428 -0.530053 0.154767 0.870103 -0.461527 0.0416783 0.889878 -0.449655 
0.161473 0.907081 -0.381556 -0.0973408 0.902152 -0.413294 -0.113754 0.925588 -0.354042 
-0.235615 0.88724 -0.388857 -0.128873 0.944651 -0.291452 -0.0425254 0.445669 -0.891569 
0.0406128 0.486194 -0.869048 0.00582473 0.573201 -0.817046 0.120591 0.530089 -0.836996 
-0.808987 -0.11736 0.571331 -0.768367 -0.0778751 0.631675 -0.730122 -0.178769 0.655576 
-0.717843 -0.032651 0.690906 -0.548702 0.0648073 -0.830971 -0.584952 0.00371928 -0.807216 
-0.516507 -0.0890088 -0.849321 -0.617749 -0.0572222 -0.78174 -0.770706 -0.542404 0.326668 
-0.770298 -0.501125 0.384938 -0.684803 -0.558295 0.464415 -0.762236 -0.457585 0.452824 
-0.0684627 -0.619503 0.778193 -0.0440383 -0.681976 0.725826 -0.165096 -0.699232 0.69136 
-0.020756 -0.740594 0.667307 -0.0769987 -0.775658 0.621101 -0.133443 -0.805256 0.572537 
-0.22154 -0.72883 0.642796 -0.188702 -0.828748 0.520603 -0.490144 -0.847953 0.188003 
-0.538863 -0.829869 0.12872 -0.594299 -0.772577 0.21097 -0.584288 -0.805318 0.0673978 
-0.658801 -0.682842 0.304868 -0.709756 -0.640084 0.285208 -0.68521 -0.599574 0.406145 
-0.763773 -0.584992 0.256746 -0.205194 0.936543 -0.274844 -0.278047 0.921646 -0.259039 
-0.308468 0.872342 -0.373052 -0.347283 0.902586 -0.244864 0.181549 -0.702257 0.683468 
0.236501 -0.643714 0.723625 0.330554 -0.687188 0.641737 0.289622 -0.582374 0.755482 
0.398797 0.453935 0.792617 0.387986 0.390653 0.830642 0.248199 0.427043 0.865656 
0.374901 0.327606 0.863557 0.108242 -0.942506 -0.307316 0.0671886 -0.964863 -0.243677 
0.168739 -0.965412 -0.185955 0.0239351 -0.981416 -0.174419 -0.261438 -0.477926 -0.834917 
-0.192243 -0.46035 -0.86329 -0.24364 -0.340136 -0.904682 -0.117346 -0.436589 -0.888391 
-0.487082 0.433354 0.754469 -0.490659 0.49628 0.711792 -0.375399 0.537852 0.751533 
-0.495504 0.55663 0.661889 -0.620151 0.736127 -0.261516 -0.640577 0.693696 -0.323083 
-0.557427 0.740854 -0.368818 -0.660052 0.641728 -0.382762 0.741773 -0.601175 -0.28893 
0.68944 -0.642325 -0.327176 0.666637 -0.706559 -0.225118 0.63374 -0.676437 -0.367778 
0.937475 -0.130457 0.312242 0.937901 -0.198845 0.273547 0.885855 -0.257055 0.379327 
0.931872 -0.265453 0.233783 -0.718223 0.642922 -0.258051 -0.692712 0.688834 -0.20213 
-0.750876 0.6447 -0.13058 -0.665089 0.730898 -0.13954 0.52935 -0.648114 0.541117 
0.466094 -0.664369 0.578475 0.497234 -0.559128 0.658934 0.399683 -0.677345 0.611863 
0.228598 0.360641 0.899375 0.29196 0.308377 0.901595 0.182 0.218288 0.954447 
0.351607 0.255438 0.895784 0.347237 0.566378 0.743318 0.272945 0.553649 0.782692 
0.219349 0.654225 0.719804 0.195079 0.536866 0.817004 0.0404998 -0.857325 -0.507423 
0.0229325 -0.819864 -0.56803 -0.0907647 -0.841453 -0.527335 0.000316999 -0.771368 -0.631271 
0.902165 -0.32661 0.270753 0.869425 -0.38525 0.300256 0.853115 -0.315694 0.40883 
0.829571 -0.441384 0.333603 -0.800979 0.0210142 0.594473 -0.841581 -0.0231295 0.535593 
-0.867925 0.062922 0.488552 -0.875397 -0.0633635 0.474975 0.422073 0.627168 0.649983 
0.360128 0.673994 0.641066 0.42478 0.720684 0.542363 0.296171 0.7153 0.628179 
0.146744 0.644371 0.746158 0.134055 0.584197 0.796414 -0.00184243 0.610174 0.788127 
0.120121 0.520872 0.841353 0.987681 -0.0677059 -0.117475 0.975122 -0.0676819 -0.195652 
0.956812 -0.201494 -0.194642 0.956806 -0.0676819 -0.271943 0.461966 0.363785 -0.804777 
0.528111 0.366767 -0.761533 0.489359 0.491655 -0.715833 0.589828 0.367235 -0.714662 
-0.0153277 0.544735 0.834712 0.046024 0.498226 0.861911 -0.0406954 0.402402 0.911185 
0.107047 0.450896 0.882501 0.0991565 0.737911 0.663129 0.0242877 0.726106 0.682435 
-0.0185938 0.812066 0.577058 -0.0493411 0.707903 0.700055 0.348262 0.419302 -0.835344 
0.361521 0.480456 -0.795647 0.244303 0.519436 -0.815507 0.372635 0.541345 -0.750251 
-0.0975764 0.788808 0.601646 -0.110706 0.735046 0.663828 -0.24472 0.725359 0.638867 
-0.124147 0.679288 0.719264 0.867056 0.0723166 -0.485962 0.903351 0.0686053 -0.415856 
0.886355 0.203989 -0.408071 0.933376 0.0686053 -0.34337 0.97503 -0.0682437 0.195705 
0.9876 -0.0682692 0.117518 0.968912 -0.203121 0.117024 0.993756 -0.0682692 0.0393005 
0.903836 0.068355 0.414769 0.868327 0.0687072 0.48487 0.853375 0.205311 0.472269 
0.827332 0.0687072 0.551767 0.731548 0.068807 0.673531 0.677194 0.06942 0.728303 
0.664081 0.204329 0.715191 0.617533 0.06942 0.779259 0.116345 -0.0682951 0.987688 
0.194562 -0.0682951 0.9753 0.191661 -0.203204 0.956984 0.270853 -0.0682951 0.956984 
-0.672057 -0.363704 -0.640589 -0.630173 -0.430798 -0.641585 -0.557441 -0.383072 -0.732847 
-0.584505 -0.494539 -0.638891 -0.475614 -0.847657 -0.221841 -0.538761 -0.804889 -0.233616 
-0.585165 -0.801565 -0.0885315 -0.596049 -0.75792 -0.25131 -0.425592 -0.795819 -0.423581 
-0.486564 -0.788947 -0.366756 -0.417485 -0.861186 -0.279505 -0.540406 -0.777162 -0.313336 
-0.86157 -0.305474 0.398014 -0.897349 -0.273054 0.338757 -0.896196 -0.164285 0.405316 
-0.92752 -0.239172 0.276374 -0.653332 -0.586976 -0.471535 -0.704881 -0.571079 -0.413585 
-0.651668 -0.672964 -0.340828 -0.750587 -0.553828 -0.352191 -0.906116 -0.412212 0.0549585 
-0.911212 -0.383473 0.127811 -0.842987 -0.499029 0.181693 -0.911616 -0.350601 0.199302 
-0.544321 -0.653593 -0.519864 -0.546276 -0.700647 -0.452199 -0.427434 -0.754436 -0.491281 
-0.543852 -0.741978 -0.38445 -0.84992 -0.456441 0.251615 -0.881445 -0.384482 0.261685 
-0.838295 -0.372461 0.390918 -0.908054 -0.31016 0.270719 -0.297755 -0.854854 0.41712 
-0.349368 -0.861649 0.360225 -0.432527 -0.783375 0.438757 -0.401169 -0.86095 0.302863 
0.0371674 -0.876917 0.472287 -0.0398241 -0.866497 0.490764 -0.00417105 -0.791531 0.605751 
-0.115673 -0.850088 0.50761 -0.209505 -0.916557 0.331669 -0.19153 -0.943203 0.26005 
-0.315844 -0.920048 0.218941 -0.173327 -0.963963 0.186662 -0.00156266 -0.933727 0.348936 
-0.0604412 -0.950034 0.295652 -0.153962 -0.906296 0.385546 -0.118789 -0.959773 0.242028 
-0.0112872 -0.994574 0.0657846 0.0603604 -0.994065 0.0397511 0.0107304 -0.99048 -0.104014 
0.133666 -0.98739 0.0163297 0.0913198 -0.960231 0.251747 0.106877 -0.975532 0.173781 
-0.0266814 -0.986094 0.144299 0.120528 -0.984981 0.0965365 0.296698 -0.917246 0.252875 
0.238602 -0.946915 0.200889 0.149563 -0.937637 0.30328 0.180182 -0.968857 0.15036 
0.378266 -0.911023 0.144827 0.388044 -0.915658 0.0676424 0.262031 -0.960999 0.04646 
0.392565 -0.916661 -0.0102595 0.49924 -0.847103 0.162661 0.561468 -0.813075 0.132536 
0.512608 -0.854598 0.00745302 0.619767 -0.774381 0.0990675 0.539901 0.837403 -0.00580341 
0.59318 0.799375 0.041646 0.514245 0.834979 0.174373 0.640557 0.75849 0.0858165 
0.5821 -0.740297 0.327799 0.597024 -0.757606 0.251903 0.487682 -0.835216 0.241899 
0.61092 -0.767889 0.176373 0.661448 0.729118 -0.15684 0.657346 0.745678 -0.0743183 
0.548527 0.826434 -0.0966378 0.651148 0.755076 0.000506217 0.732764 -0.610592 0.291047 
0.695985 -0.665883 0.256969 0.62293 -0.688036 0.364458 0.655323 -0.718912 0.218434 
0.795068 0.597042 -0.075659 0.751667 0.652688 -0.0532014 0.710138 0.677702 -0.17618 
0.704722 0.704792 -0.0301478 -0.179077 -0.352177 0.915137 -0.149395 -0.416923 0.893404 
-0.273953 -0.44006 0.851294 -0.12037 -0.487572 0.860999 0.796013 -0.571128 0.184855 
0.805911 -0.576386 0.110446 0.719779 -0.681423 0.107031 0.811606 -0.577884 0.035209 
0.824082 0.558954 0.0485383 0.813661 0.563856 0.120911 0.735049 0.666988 0.0939961 
0.796892 0.567678 0.192239 0.54214 -0.330444 -0.768467 0.562647 -0.387952 -0.726248 
0.659675 -0.306874 -0.681507 0.579373 -0.441702 -0.680471 0.0256303 -0.324842 0.941738 
-0.0228188 -0.383113 0.919967 -0.12991 -0.297497 0.94259 -0.0720027 -0.438674 0.891906 
0.901832 -0.396553 0.153398 0.877123 -0.460104 0.113573 0.826338 -0.511702 0.222908 
0.847179 -0.520617 0.0744986 0.878416 -0.458136 -0.11275 0.903368 -0.394547 -0.15116 
0.855203 -0.444315 -0.256247 0.922294 -0.328435 -0.189136 0.987593 -0.135975 4.28509e-05 
0.975022 -0.203577 -0.0392512 0.956342 -0.270723 0.0777302 0.95672 -0.269683 -0.0772016 
-0.645591 0.0774378 -0.757473 -0.61165 0.143844 -0.774978 -0.666463 0.19681 -0.716664 
-0.563114 0.211493 -0.795581 0.910164 0.389591 0.118429 0.877517 0.45002 0.146121 
0.861957 0.50094 0.0252809 0.83898 0.511748 0.169835 0.811639 0.459804 0.352367 
0.819944 0.402681 0.39984 0.74032 0.465923 0.478398 0.823631 0.338956 0.447937 
-0.434719 0.606238 0.661666 -0.376049 0.653133 0.653051 -0.316728 0.584747 0.742917 
-0.309893 0.694599 0.645315 0.134276 -0.401074 0.902612 0.163306 -0.464727 0.866396 
0.0352366 -0.517416 0.851346 0.190495 -0.526159 0.824985 0.0727313 -0.620896 -0.776631 
0.125249 -0.572281 -0.806666 0.0257465 -0.496129 -0.864231 0.177826 -0.516316 -0.834121 
0.589489 -0.1369 0.792175 0.618166 -0.203772 0.755087 0.517415 -0.275084 0.806541 
0.64131 -0.267494 0.715057 0.212127 -0.782409 -0.580577 0.141279 -0.783938 -0.599398 
0.109169 -0.859342 -0.494148 0.0672413 -0.777255 -0.620074 0.680036 -0.0669291 0.726286 
0.735241 -0.0667827 0.669551 0.731314 -0.197434 0.648701 0.786196 -0.0667827 0.609891 
-0.180452 0.658718 -0.726184 -0.224282 0.608006 -0.758888 -0.121398 0.581218 -0.801555 
-0.264312 0.546014 -0.791181 -0.949977 -0.230673 -0.194961 -0.968297 -0.20293 -0.122206 
-0.940167 -0.324333 -0.0692839 -0.980279 -0.174517 -0.0487324 -0.509878 -0.445277 -0.732063 
-0.521812 -0.501368 -0.685569 -0.408544 -0.560755 -0.716655 -0.532679 -0.55479 -0.634275 
-0.688516 -0.234488 -0.681691 -0.634974 -0.246514 -0.728207 -0.639464 -0.113957 -0.756326 
-0.576892 -0.255562 -0.771864 -0.283303 0.229875 -0.92815 -0.360078 0.194899 -0.90863 
-0.324338 0.0647335 -0.940122 -0.4437 0.165965 -0.876335 -0.899874 -0.330459 -0.273639 
-0.897354 -0.378921 -0.211901 -0.830407 -0.471461 -0.28629 -0.889775 -0.424157 -0.148962 
-0.934845 0.115208 0.329665 -0.919192 0.177994 0.343527 -0.875747 0.164042 0.45013 
-0.89936 0.242976 0.357693 -0.679299 -0.399276 0.612496 -0.733856 -0.38314 0.556874 
-0.750979 -0.287599 0.591104 -0.784605 -0.364126 0.497841 0.186701 0.780349 0.592156 
0.133566 0.818943 0.554476 0.219668 0.83954 0.492215 0.0760038 0.855544 0.50622 
0.129668 0.879914 0.452773 0.172291 0.896648 0.402234 0.262291 0.856273 0.441676 
0.212732 0.907111 0.358968 -0.296446 -0.939379 0.157741 -0.225592 -0.961497 0.141487 
-0.253451 -0.964477 0.0357933 -0.152851 -0.978067 0.123465 0.74419 -0.53998 0.386987 
0.693456 -0.579461 0.422895 0.698556 -0.506969 0.501083 0.638179 -0.614158 0.45931 
-0.0840376 0.909425 0.401431 -0.144384 0.917408 0.364356 -0.0897179 0.953617 0.281351 
-0.197108 0.925837 0.317122 -0.135715 0.557803 0.816043 -0.148696 0.488212 0.857262 
-0.262619 0.48987 0.827882 -0.16099 0.415856 0.892587 -0.308699 -0.829783 -0.459192 
-0.30345 -0.866499 -0.390638 -0.191632 -0.882026 -0.423714 0.937567 -0.336415 0.0387112 
0.937793 -0.335796 -0.0392261 0.883045 -0.460982 -0.0396019 0.932143 -0.333737 -0.11644 
0.528249 0.651546 -0.537386 0.518497 0.603848 -0.600139 0.635953 0.538029 -0.546525 
0.504878 0.548972 -0.660222 -0.047508 0.788209 -0.609894 0.0361824 0.792547 -0.604553 
0.0311666 0.852203 -0.518181 0.127604 0.785306 -0.600696 -0.198813 -0.965175 -0.152978 
-0.268909 -0.943131 -0.180723 -0.3149 -0.944066 -0.0715294 -0.339933 -0.916511 -0.199862 
0.191786 -0.0665819 -0.976202 0.113537 -0.0665212 -0.988139 0.112657 -0.207 -0.967882 
0.0353196 -0.0665212 -0.994295 0.419717 -0.0700666 0.901517 0.490002 -0.0699705 0.864945 
0.488738 -0.208212 0.843629 0.556899 -0.0699705 0.823951 0.813553 0.206022 0.538009 
0.800819 0.137514 0.577852 0.718436 0.203716 0.660418 0.782503 0.068807 0.61387 
-0.160365 -0.567885 -0.805 -0.230034 -0.584169 -0.773909 -0.220953 -0.677601 -0.699109 
-0.303275 -0.600792 -0.737052 0.872355 -0.382179 -0.295479 0.905919 -0.323812 -0.261872 
0.892214 -0.250339 -0.368545 0.934694 -0.263002 -0.227152 -0.873691 -0.174153 -0.447493 
-0.835758 -0.192245 -0.508792 -0.832792 -0.0651415 -0.544786 -0.790235 -0.209587 -0.570296 
0.909939 0.331007 0.237992 0.887161 0.335279 0.307421 0.83797 0.458113 0.286879 
0.857416 0.336933 0.380692 0.570323 0.793967 0.197754 0.629541 0.7581 0.154861 
0.661665 0.705445 0.245593 0.687509 0.7138 0.113721 -0.181086 -0.342106 -0.920365 
-0.121251 -0.383881 -0.9131 -0.0602011 -0.318977 -0.944083 -0.0547321 -0.426416 -0.900983 
-0.222865 -0.149516 -0.960758 -0.234613 -0.221941 -0.942269 -0.120036 -0.277202 -0.951348 
-0.240861 -0.288188 -0.924538 0.389696 -0.46082 0.793844 0.434962 -0.397115 0.804476 
0.524198 -0.444554 0.722297 0.477677 -0.332793 0.809769 -0.371898 0.031811 -0.923742 
-0.440145 0.0830555 -0.891319 -0.480257 -0.0279208 -0.873076 -0.500167 0.132457 -0.851573 
0.153291 -0.457655 -0.872337 0.129031 -0.393427 -0.906984 0.0014862 -0.431901 -0.898878 
0.104237 -0.332818 -0.934328 -0.478043 -0.610638 -0.627077 -0.424141 -0.662131 -0.613374 
-0.354643 -0.612248 -0.702952 -0.363521 -0.709857 -0.599119 -0.226327 0.503865 -0.829614 
-0.182243 0.455322 -0.867625 -0.0773135 0.532676 -0.839566 -0.13384 0.406502 -0.900416 
-0.102982 -0.800909 -0.586713 -0.0590479 -0.765544 -0.636118 -0.128281 -0.71531 -0.68474 
-0.0147391 -0.722935 -0.688161 0.941177 0.135188 0.299103 0.918629 0.203305 0.328898 
0.937865 0.266976 0.208182 0.890847 0.271554 0.355518 -0.0384097 -0.663737 -0.742563 
-0.0614122 -0.609743 -0.788023 -0.151284 -0.661316 -0.7302 -0.0854681 -0.544124 -0.830101 
-0.972048 -0.157655 0.155765 -0.985763 -0.113705 0.0963685 -0.981122 -0.00823596 0.177231 
-0.994034 -0.0673441 0.0344796 0.0104762 0.357341 0.930542 0.0874466 0.384494 0.91622 
0.118638 0.270552 0.952227 0.161543 0.40714 0.895662 -0.613349 -0.0228515 0.785764 
-0.564503 -0.0212853 0.822088 -0.554949 -0.151125 0.815226 -0.500007 -0.023706 0.861883 
0.642444 0.404197 0.646404 0.591003 0.467062 0.652739 0.644424 0.529121 0.546791 
0.535958 0.527228 0.654798 -0.930356 -0.000179641 -0.358439 -0.922718 -0.0771821 -0.370515 
-0.870724 -0.0470493 -0.483487 -0.909347 -0.153208 -0.378891 -0.76948 -0.14929 -0.616005 
-0.741583 -0.0908933 -0.660323 -0.804895 -0.0067452 -0.589104 -0.714964 -0.0307773 -0.694945 
0.0867026 -0.98741 -0.110861 0.146172 -0.98521 -0.0499657 0.228208 -0.963212 -0.125059 
0.20634 -0.976126 0.00681962 0.724033 0.666598 0.16304 0.755099 0.615963 0.21283 
0.692731 0.65481 0.295383 0.780418 0.563854 0.261753 0.988174 0.0665019 0.113087 
0.976689 0.0668335 0.189546 0.960414 0.19886 0.178387 0.958373 0.0668335 0.265837 
0.559909 0.491064 -0.662374 0.608575 0.427951 -0.662794 0.684618 0.474916 -0.546945 
0.654012 0.361439 -0.659471 -0.00196433 -0.125601 0.988929 0.0360626 -0.194036 0.977771 
-0.0814605 -0.239226 0.964361 0.0732513 -0.26065 0.959455 0.259044 -0.340307 0.900453 
0.33548 -0.340898 0.874547 0.316786 -0.465969 0.822284 0.408749 -0.340805 0.843082 
0.268808 -0.206629 0.937108 0.309067 -0.138362 0.93747 0.418454 -0.208308 0.880201 
0.34723 -0.0700666 0.931542 0.809591 -0.571529 -0.111682 0.800593 -0.56512 -0.184552 
0.71897 -0.66541 -0.186872 0.787228 -0.556602 -0.255354 -0.995915 0.0102971 0.0469843 
-0.991529 0.0839556 0.0605773 -0.976736 0.0654226 0.190824 -0.981539 0.158485 0.0753006 
-0.924144 -0.127662 0.352152 -0.94148 -0.163487 0.285081 -0.967407 -0.0521862 0.236628 
-0.952185 -0.200594 0.217043 0.940437 -0.196872 -0.267378 0.940319 -0.12889 -0.30594 
0.892096 -0.182357 -0.407107 0.93457 -0.0612081 -0.343014 0.726895 -0.681821 0.0340302 
0.772952 -0.630144 -0.00258653 0.727968 -0.671818 -0.114002 0.81422 -0.574375 -0.0385343 
-0.602692 0.794262 -0.0228834 -0.565136 0.820889 0.0388168 -0.6423 0.755181 0.107948 
-0.52075 0.844307 0.100005 0.274538 -0.958819 -0.0198354 0.334269 -0.938499 -0.0502802 
0.287939 -0.942892 -0.155504 0.396605 -0.911467 -0.0803447 0.865073 -0.0620961 0.49177 
0.901793 -0.0622129 0.42175 0.88543 -0.188666 0.418022 0.931818 -0.0622129 0.349263 
-0.540645 0.820343 0.16872 -0.558332 0.791314 0.236593 -0.659986 0.726152 0.17582 